pnp                                                                     
Freq      RB3LYP                                                      6-31G(d)            
Number of atoms                            I               14
Info1-9                                    I   N=           9
          25          22        1002           0           0         100
           6          18        -502
Charge                                     I                1
Multiplicity                               I                1
Number of electrons                        I               70
Number of alpha electrons                  I               35
Number of beta electrons                   I               35
Number of basis functions                  I              158
Number of independent functions            I              158
Number of point charges in /Mol/           I                0
Number of translation vectors              I                0
Atomic numbers                             I   N=          14
           8           7           8           6           6           6
           6           8           6           6           1           1
           1           1
Nuclear charges                            R   N=          14
  8.00000000E+00  7.00000000E+00  8.00000000E+00  6.00000000E+00  6.00000000E+00
  6.00000000E+00  6.00000000E+00  8.00000000E+00  6.00000000E+00  6.00000000E+00
  1.00000000E+00  1.00000000E+00  1.00000000E+00  1.00000000E+00
Current cartesian coordinates              R   N=          42
  4.98351421E+00 -2.07679739E+00  1.97215226E-31  3.97797217E+00  8.21005872E-07
 -1.97215226E-31  4.98351152E+00  2.07679925E+00  9.86076132E-32  1.12633123E+00
 -6.74969972E-07  0.00000000E+00 -8.34263612E-02 -2.38836032E+00  0.00000000E+00
 -2.66503579E+00 -2.42797331E+00 -9.86076132E-32 -4.11028904E+00  6.78691316E-07
  0.00000000E+00 -6.41395084E+00  2.44645216E-06  0.00000000E+00 -2.66503579E+00
  2.42796929E+00 -9.86076132E-32 -8.34263283E-02  2.38835887E+00  0.00000000E+00
  1.06682238E+00 -4.08487215E+00  0.00000000E+00 -3.75937364E+00 -4.16590530E+00
  0.00000000E+00 -3.75937995E+00  4.16589751E+00 -1.97215226E-31  1.06681933E+00
  4.08487250E+00  4.93038066E-32
Force Field                                I                0
Int Atom Types                             I   N=          14
           0           0           0           0           0           0
           0           0           0           0           0           0
           0           0
MM charges                                 R   N=          14
  0.00000000E+00  0.00000000E+00  0.00000000E+00  0.00000000E+00  0.00000000E+00
  0.00000000E+00  0.00000000E+00  0.00000000E+00  0.00000000E+00  0.00000000E+00
  0.00000000E+00  0.00000000E+00  0.00000000E+00  0.00000000E+00
Integer atomic weights                     I   N=          14
          16          14          16          12          12          12
          12          16          12          12           1           1
           1           1
Real atomic weights                        R   N=          14
  1.59949146E+01  1.40030740E+01  1.59949146E+01  1.20000000E+01  1.20000000E+01
  1.20000000E+01  1.20000000E+01  1.59949146E+01  1.20000000E+01  1.20000000E+01
  1.00782504E+00  1.00782504E+00  1.00782504E+00  1.00782504E+00
Atom fragment info                         I   N=          14
           0           0           0           0           0           0
           0           0           0           0           0           0
           0           0
Atom residue num                           I   N=          14
           0           0           0           0           0           0
           0           0           0           0           0           0
           0           0
Nuclear spins                              I   N=          14
           0           2           0           0           0           0
           0           0           0           0           1           1
           1           1
Nuclear ZEff                               R   N=          14
 -5.60000000E+00 -4.55000000E+00 -5.60000000E+00 -3.60000000E+00 -3.60000000E+00
 -3.60000000E+00 -3.60000000E+00 -5.60000000E+00 -3.60000000E+00 -3.60000000E+00
 -1.00000000E+00 -1.00000000E+00 -1.00000000E+00 -1.00000000E+00
Nuclear ZNuc                               R   N=          14
  8.00000000E+00  7.00000000E+00  8.00000000E+00  6.00000000E+00  6.00000000E+00
  6.00000000E+00  6.00000000E+00  8.00000000E+00  6.00000000E+00  6.00000000E+00
  1.00000000E+00  1.00000000E+00  1.00000000E+00  1.00000000E+00
Nuclear QMom                               R   N=          14
  0.00000000E+00  2.04400000E+00  0.00000000E+00  0.00000000E+00  0.00000000E+00
  0.00000000E+00  0.00000000E+00  0.00000000E+00  0.00000000E+00  0.00000000E+00
  0.00000000E+00  0.00000000E+00  0.00000000E+00  0.00000000E+00
Nuclear GFac                               R   N=          14
  0.00000000E+00  4.03761000E-01  0.00000000E+00  0.00000000E+00  0.00000000E+00
  0.00000000E+00  0.00000000E+00  0.00000000E+00  0.00000000E+00  0.00000000E+00
  2.79284600E+00  2.79284600E+00  2.79284600E+00  2.79284600E+00
MicOpt                                     I   N=          14
          -1          -1          -1          -1          -1          -1
          -1          -1          -1          -1          -1          -1
          -1          -1
Number of contracted shells                I               48
Number of primitive shells                 I              126
Pure/Cartesian d shells                    I                1
Pure/Cartesian f shells                    I                0
Highest angular momentum                   I                2
Largest degree of contraction              I                6
Shell types                                I   N=          48
           0          -1          -1           2           0          -1
          -1           2           0          -1          -1           2
           0          -1          -1           2           0          -1
          -1           2           0          -1          -1           2
           0          -1          -1           2           0          -1
          -1           2           0          -1          -1           2
           0          -1          -1           2           0           0
           0           0           0           0           0           0
Number of primitives per shell             I   N=          48
           6           3           1           1           6           3
           1           1           6           3           1           1
           6           3           1           1           6           3
           1           1           6           3           1           1
           6           3           1           1           6           3
           1           1           6           3           1           1
           6           3           1           1           3           1
           3           1           3           1           3           1
Shell to atom map                          I   N=          48
           1           1           1           1           2           2
           2           2           3           3           3           3
           4           4           4           4           5           5
           5           5           6           6           6           6
           7           7           7           7           8           8
           8           8           9           9           9           9
          10          10          10          10          11          11
          12          12          13          13          14          14
Primitive exponents                        R   N=         126
  5.48467166E+03  8.25234946E+02  1.88046958E+02  5.29645000E+01  1.68975704E+01
  5.79963534E+00  1.55396162E+01  3.59993359E+00  1.01376175E+00  2.70005823E-01
  8.00000000E-01  4.17351146E+03  6.27457911E+02  1.42902093E+02  4.02343293E+01
  1.28202129E+01  4.39043701E+00  1.16263619E+01  2.71627981E+00  7.72218397E-01
  2.12031498E-01  8.00000000E-01  5.48467166E+03  8.25234946E+02  1.88046958E+02
  5.29645000E+01  1.68975704E+01  5.79963534E+00  1.55396162E+01  3.59993359E+00
  1.01376175E+00  2.70005823E-01  8.00000000E-01  3.04752488E+03  4.57369518E+02
  1.03948685E+02  2.92101553E+01  9.28666296E+00  3.16392696E+00  7.86827235E+00
  1.88128854E+00  5.44249258E-01  1.68714478E-01  8.00000000E-01  3.04752488E+03
  4.57369518E+02  1.03948685E+02  2.92101553E+01  9.28666296E+00  3.16392696E+00
  7.86827235E+00  1.88128854E+00  5.44249258E-01  1.68714478E-01  8.00000000E-01
  3.04752488E+03  4.57369518E+02  1.03948685E+02  2.92101553E+01  9.28666296E+00
  3.16392696E+00  7.86827235E+00  1.88128854E+00  5.44249258E-01  1.68714478E-01
  8.00000000E-01  3.04752488E+03  4.57369518E+02  1.03948685E+02  2.92101553E+01
  9.28666296E+00  3.16392696E+00  7.86827235E+00  1.88128854E+00  5.44249258E-01
  1.68714478E-01  8.00000000E-01  5.48467166E+03  8.25234946E+02  1.88046958E+02
  5.29645000E+01  1.68975704E+01  5.79963534E+00  1.55396162E+01  3.59993359E+00
  1.01376175E+00  2.70005823E-01  8.00000000E-01  3.04752488E+03  4.57369518E+02
  1.03948685E+02  2.92101553E+01  9.28666296E+00  3.16392696E+00  7.86827235E+00
  1.88128854E+00  5.44249258E-01  1.68714478E-01  8.00000000E-01  3.04752488E+03
  4.57369518E+02  1.03948685E+02  2.92101553E+01  9.28666296E+00  3.16392696E+00
  7.86827235E+00  1.88128854E+00  5.44249258E-01  1.68714478E-01  8.00000000E-01
  1.87311370E+01  2.82539436E+00  6.40121692E-01  1.61277759E-01  1.87311370E+01
  2.82539436E+00  6.40121692E-01  1.61277759E-01  1.87311370E+01  2.82539436E+00
  6.40121692E-01  1.61277759E-01  1.87311370E+01  2.82539436E+00  6.40121692E-01
  1.61277759E-01
Contraction coefficients                   R   N=         126
  1.83107443E-03  1.39501722E-02  6.84450781E-02  2.32714336E-01  4.70192898E-01
  3.58520853E-01 -1.10777550E-01 -1.48026263E-01  1.13076702E+00  1.00000000E+00
  1.00000000E+00  1.83477216E-03  1.39946270E-02  6.85865518E-02  2.32240873E-01
  4.69069948E-01  3.60455199E-01 -1.14961182E-01 -1.69117479E-01  1.14585195E+00
  1.00000000E+00  1.00000000E+00  1.83107443E-03  1.39501722E-02  6.84450781E-02
  2.32714336E-01  4.70192898E-01  3.58520853E-01 -1.10777550E-01 -1.48026263E-01
  1.13076702E+00  1.00000000E+00  1.00000000E+00  1.83473713E-03  1.40373228E-02
  6.88426223E-02  2.32184443E-01  4.67941348E-01  3.62311985E-01 -1.19332420E-01
 -1.60854152E-01  1.14345644E+00  1.00000000E+00  1.00000000E+00  1.83473713E-03
  1.40373228E-02  6.88426223E-02  2.32184443E-01  4.67941348E-01  3.62311985E-01
 -1.19332420E-01 -1.60854152E-01  1.14345644E+00  1.00000000E+00  1.00000000E+00
  1.83473713E-03  1.40373228E-02  6.88426223E-02  2.32184443E-01  4.67941348E-01
  3.62311985E-01 -1.19332420E-01 -1.60854152E-01  1.14345644E+00  1.00000000E+00
  1.00000000E+00  1.83473713E-03  1.40373228E-02  6.88426223E-02  2.32184443E-01
  4.67941348E-01  3.62311985E-01 -1.19332420E-01 -1.60854152E-01  1.14345644E+00
  1.00000000E+00  1.00000000E+00  1.83107443E-03  1.39501722E-02  6.84450781E-02
  2.32714336E-01  4.70192898E-01  3.58520853E-01 -1.10777550E-01 -1.48026263E-01
  1.13076702E+00  1.00000000E+00  1.00000000E+00  1.83473713E-03  1.40373228E-02
  6.88426223E-02  2.32184443E-01  4.67941348E-01  3.62311985E-01 -1.19332420E-01
 -1.60854152E-01  1.14345644E+00  1.00000000E+00  1.00000000E+00  1.83473713E-03
  1.40373228E-02  6.88426223E-02  2.32184443E-01  4.67941348E-01  3.62311985E-01
 -1.19332420E-01 -1.60854152E-01  1.14345644E+00  1.00000000E+00  1.00000000E+00
  3.34946043E-02  2.34726953E-01  8.13757326E-01  1.00000000E+00  3.34946043E-02
  2.34726953E-01  8.13757326E-01  1.00000000E+00  3.34946043E-02  2.34726953E-01
  8.13757326E-01  1.00000000E+00  3.34946043E-02  2.34726953E-01  8.13757326E-01
  1.00000000E+00
P(S=P) Contraction coefficients            R   N=         126
  0.00000000E+00  0.00000000E+00  0.00000000E+00  0.00000000E+00  0.00000000E+00
  0.00000000E+00  7.08742682E-02  3.39752839E-01  7.27158577E-01  1.00000000E+00
  0.00000000E+00  0.00000000E+00  0.00000000E+00  0.00000000E+00  0.00000000E+00
  0.00000000E+00  0.00000000E+00  6.75797439E-02  3.23907296E-01  7.40895140E-01
  1.00000000E+00  0.00000000E+00  0.00000000E+00  0.00000000E+00  0.00000000E+00
  0.00000000E+00  0.00000000E+00  0.00000000E+00  7.08742682E-02  3.39752839E-01
  7.27158577E-01  1.00000000E+00  0.00000000E+00  0.00000000E+00  0.00000000E+00
  0.00000000E+00  0.00000000E+00  0.00000000E+00  0.00000000E+00  6.89990666E-02
  3.16423961E-01  7.44308291E-01  1.00000000E+00  0.00000000E+00  0.00000000E+00
  0.00000000E+00  0.00000000E+00  0.00000000E+00  0.00000000E+00  0.00000000E+00
  6.89990666E-02  3.16423961E-01  7.44308291E-01  1.00000000E+00  0.00000000E+00
  0.00000000E+00  0.00000000E+00  0.00000000E+00  0.00000000E+00  0.00000000E+00
  0.00000000E+00  6.89990666E-02  3.16423961E-01  7.44308291E-01  1.00000000E+00
  0.00000000E+00  0.00000000E+00  0.00000000E+00  0.00000000E+00  0.00000000E+00
  0.00000000E+00  0.00000000E+00  6.89990666E-02  3.16423961E-01  7.44308291E-01
  1.00000000E+00  0.00000000E+00  0.00000000E+00  0.00000000E+00  0.00000000E+00
  0.00000000E+00  0.00000000E+00  0.00000000E+00  7.08742682E-02  3.39752839E-01
  7.27158577E-01  1.00000000E+00  0.00000000E+00  0.00000000E+00  0.00000000E+00
  0.00000000E+00  0.00000000E+00  0.00000000E+00  0.00000000E+00  6.89990666E-02
  3.16423961E-01  7.44308291E-01  1.00000000E+00  0.00000000E+00  0.00000000E+00
  0.00000000E+00  0.00000000E+00  0.00000000E+00  0.00000000E+00  0.00000000E+00
  6.89990666E-02  3.16423961E-01  7.44308291E-01  1.00000000E+00  0.00000000E+00
  0.00000000E+00  0.00000000E+00  0.00000000E+00  0.00000000E+00  0.00000000E+00
  0.00000000E+00  0.00000000E+00  0.00000000E+00  0.00000000E+00  0.00000000E+00
  0.00000000E+00  0.00000000E+00  0.00000000E+00  0.00000000E+00  0.00000000E+00
  0.00000000E+00
Coordinates of each shell                  R   N=         144
  4.98351421E+00 -2.07679739E+00  9.86076132E-32  4.98351421E+00 -2.07679739E+00
  9.86076132E-32  4.98351421E+00 -2.07679739E+00  9.86076132E-32  4.98351421E+00
 -2.07679739E+00  9.86076132E-32  3.97797217E+00  8.21005872E-07 -9.86076132E-32
  3.97797217E+00  8.21005872E-07 -9.86076132E-32  3.97797217E+00  8.21005872E-07
 -9.86076132E-32  3.97797217E+00  8.21005872E-07 -9.86076132E-32  4.98351152E+00
  2.07679925E+00  9.86076132E-32  4.98351152E+00  2.07679925E+00  9.86076132E-32
  4.98351152E+00  2.07679925E+00  9.86076132E-32  4.98351152E+00  2.07679925E+00
  9.86076132E-32  1.12633123E+00 -6.74969972E-07  0.00000000E+00  1.12633123E+00
 -6.74969972E-07  0.00000000E+00  1.12633123E+00 -6.74969972E-07  0.00000000E+00
  1.12633123E+00 -6.74969972E-07  0.00000000E+00 -8.34263612E-02 -2.38836032E+00
  0.00000000E+00 -8.34263612E-02 -2.38836032E+00  0.00000000E+00 -8.34263612E-02
 -2.38836032E+00  0.00000000E+00 -8.34263612E-02 -2.38836032E+00  0.00000000E+00
 -2.66503579E+00 -2.42797331E+00 -4.93038066E-32 -2.66503579E+00 -2.42797331E+00
 -4.93038066E-32 -2.66503579E+00 -2.42797331E+00 -4.93038066E-32 -2.66503579E+00
 -2.42797331E+00 -4.93038066E-32 -4.11028904E+00  6.78691316E-07  0.00000000E+00
 -4.11028904E+00  6.78691316E-07  0.00000000E+00 -4.11028904E+00  6.78691316E-07
  0.00000000E+00 -4.11028904E+00  6.78691316E-07  0.00000000E+00 -6.41395084E+00
  2.44645216E-06  0.00000000E+00 -6.41395084E+00  2.44645216E-06  0.00000000E+00
 -6.41395084E+00  2.44645216E-06  0.00000000E+00 -6.41395084E+00  2.44645216E-06
  0.00000000E+00 -2.66503579E+00  2.42796929E+00 -4.93038066E-32 -2.66503579E+00
  2.42796929E+00 -4.93038066E-32 -2.66503579E+00  2.42796929E+00 -4.93038066E-32
 -2.66503579E+00  2.42796929E+00 -4.93038066E-32 -8.34263283E-02  2.38835887E+00
  0.00000000E+00 -8.34263283E-02  2.38835887E+00  0.00000000E+00 -8.34263283E-02
  2.38835887E+00  0.00000000E+00 -8.34263283E-02  2.38835887E+00  0.00000000E+00
  1.06682238E+00 -4.08487215E+00  0.00000000E+00  1.06682238E+00 -4.08487215E+00
  0.00000000E+00 -3.75937364E+00 -4.16590530E+00  0.00000000E+00 -3.75937364E+00
 -4.16590530E+00  0.00000000E+00 -3.75937995E+00  4.16589751E+00 -9.86076132E-32
 -3.75937995E+00  4.16589751E+00 -9.86076132E-32  1.06681933E+00  4.08487250E+00
  2.46519033E-32  1.06681933E+00  4.08487250E+00  2.46519033E-32
Constraint Structure                       R   N=          42
  4.98351421E+00 -2.07679739E+00  9.86076132E-32  3.97797217E+00  8.21005872E-07
 -9.86076132E-32  4.98351152E+00  2.07679925E+00  9.86076132E-32  1.12633123E+00
 -6.74969972E-07  0.00000000E+00 -8.34263612E-02 -2.38836032E+00  0.00000000E+00
 -2.66503579E+00 -2.42797331E+00 -4.93038066E-32 -4.11028904E+00  6.78691316E-07
  0.00000000E+00 -6.41395084E+00  2.44645216E-06  0.00000000E+00 -2.66503579E+00
  2.42796929E+00 -4.93038066E-32 -8.34263283E-02  2.38835887E+00  0.00000000E+00
  1.06682238E+00 -4.08487215E+00  0.00000000E+00 -3.75937364E+00 -4.16590530E+00
  0.00000000E+00 -3.75937995E+00  4.16589751E+00 -9.86076132E-32  1.06681933E+00
  4.08487250E+00  2.46519033E-32
Num ILSW                                   I              100
ILSW                                       I   N=         100
           0           1           0           0           2           0
           0           0           0           0         402          -1
           5           0           0           0           2           0
           0           0           0           0           1           0
           1           0           0           0           0           0
           0           0      100000           0          -1           0
           0           0           0           0           0           0
           0           0           0           1           0           0
           0           0           1           0           0           0
           0           0           4          41           0           0
           0           0           5           0           0           0
           0           0           0          14           0           0
           0           0           0           0           0           0
           0           0           0           0           0           0
           0           0           0           0           0           0
           0           0           0           0           0           0
           0           0           0           0
Num RLSW                                   I               41
RLSW                                       R   N=          41
  8.00000000E-01  7.20000000E-01  1.00000000E+00  8.10000000E-01  2.00000000E-01
  0.00000000E+00  0.00000000E+00  1.00000000E+00  0.00000000E+00  0.00000000E+00
  0.00000000E+00  0.00000000E+00  1.00000000E+00  0.00000000E+00  0.00000000E+00
  0.00000000E+00  0.00000000E+00  1.00000000E+00  0.00000000E+00  0.00000000E+00
  0.00000000E+00  0.00000000E+00  1.00000000E+00  0.00000000E+00  0.00000000E+00
  0.00000000E+00  0.00000000E+00  1.00000000E+00  0.00000000E+00  0.00000000E+00
  0.00000000E+00  0.00000000E+00  1.00000000E+00  0.00000000E+00  0.00000000E+00
  0.00000000E+00  0.00000000E+00  0.00000000E+00  1.00000000E+00  1.00000000E+00
  0.00000000E+00
MxBond                                     I                3
NBond                                      I   N=          14
           1           3           1           3           3           3
           3           1           3           3           1           1
           1           1
IBond                                      I   N=          42
           2           0           0           1           3           4
           2           0           0           2           5          10
           4           6          11           5           7          12
           6           8           9           7           0           0
           7          10          13           4           9          14
           5           0           0           6           0           0
           9           0           0          10           0           0
RBond                                      R   N=          42
  2.00000000E+00  0.00000000E+00  0.00000000E+00  2.00000000E+00  2.00000000E+00
  1.00000000E+00  2.00000000E+00  0.00000000E+00  0.00000000E+00  1.00000000E+00
  1.50000000E+00  1.50000000E+00  1.50000000E+00  1.50000000E+00  1.00000000E+00
  1.50000000E+00  1.50000000E+00  1.00000000E+00  1.50000000E+00  2.00000000E+00
  1.50000000E+00  2.00000000E+00  0.00000000E+00  0.00000000E+00  1.50000000E+00
  1.50000000E+00  1.00000000E+00  1.50000000E+00  1.50000000E+00  1.00000000E+00
  1.00000000E+00  0.00000000E+00  0.00000000E+00  1.00000000E+00  0.00000000E+00
  0.00000000E+00  1.00000000E+00  0.00000000E+00  0.00000000E+00  1.00000000E+00
  0.00000000E+00  0.00000000E+00
Virial Ratio                               R      2.009042740311678E+00
SCF Energy                                 R     -5.109879621555467E+02
Total Energy                               R     -5.109879621555467E+02
RMS Force                                  R      2.221204130573719E-06
RMS Density                                R      9.087083651870191E-09
External E-field                           R   N=          35
  0.00000000E+00  0.00000000E+00  0.00000000E+00  0.00000000E+00  0.00000000E+00
  0.00000000E+00  0.00000000E+00  0.00000000E+00  0.00000000E+00  0.00000000E+00
  0.00000000E+00  0.00000000E+00  0.00000000E+00  0.00000000E+00  0.00000000E+00
  0.00000000E+00  0.00000000E+00  0.00000000E+00  0.00000000E+00  0.00000000E+00
  0.00000000E+00  0.00000000E+00  0.00000000E+00  0.00000000E+00  0.00000000E+00
  0.00000000E+00  0.00000000E+00  0.00000000E+00  0.00000000E+00  0.00000000E+00
  0.00000000E+00  0.00000000E+00  0.00000000E+00  0.00000000E+00  0.00000000E+00
IOpCl                                      I                0
IROHF                                      I                0
Alpha Orbital Energies                     R   N=         158
 -1.94128135E+01 -1.93850056E+01 -1.93849928E+01 -1.47766774E+01 -1.05334085E+01
 -1.05240375E+01 -1.04730420E+01 -1.04730353E+01 -1.04527117E+01 -1.04527084E+01
 -1.42980526E+00 -1.29544942E+00 -1.26210267E+00 -1.11934959E+00 -1.01815711E+00
 -1.00784415E+00 -8.91215458E-01 -8.67417407E-01 -8.17765216E-01 -7.62097006E-01
 -7.36647500E-01 -7.34605909E-01 -7.04290921E-01 -6.95247098E-01 -6.87371612E-01
 -6.83753350E-01 -6.55266225E-01 -6.44670087E-01 -6.13446567E-01 -5.82111527E-01
 -5.19346667E-01 -5.04318779E-01 -5.03192429E-01 -5.02273617E-01 -4.89074534E-01
 -4.08201247E-01 -2.75174210E-01 -2.49737661E-01 -2.08443973E-01 -1.22967817E-01
 -9.02260479E-02 -6.25271459E-02 -5.81597730E-02 -2.75903050E-02 -1.34946031E-02
  3.38239624E-04  4.65347292E-02  5.23142443E-02  7.19285899E-02  9.51420161E-02
  1.30792754E-01  1.94906635E-01  2.49513130E-01  2.49675461E-01  2.66450113E-01
  2.76061417E-01  3.18903267E-01  3.23793735E-01  3.33599300E-01  3.49615813E-01
  3.52259341E-01  3.82133215E-01  4.19584240E-01  4.24953325E-01  4.26711766E-01
  4.43146215E-01  5.12608246E-01  5.18577650E-01  5.54140985E-01  5.54773608E-01
  5.81892173E-01  6.04715313E-01  6.24747542E-01  6.29510818E-01  6.53946334E-01
  6.55690070E-01  6.98434468E-01  7.14148430E-01  7.22990753E-01  7.62555212E-01
  7.62900587E-01  7.74775791E-01  7.88007512E-01  8.22325906E-01  8.36674739E-01
  8.71654396E-01  8.91035287E-01  9.27030828E-01  9.69990584E-01  9.73054944E-01
  1.01479745E+00  1.03100418E+00  1.06446598E+00  1.12962019E+00  1.13636912E+00
  1.16503043E+00  1.17231689E+00  1.18708489E+00  1.21364755E+00  1.21860384E+00
  1.22857680E+00  1.25764038E+00  1.43219956E+00  1.43582353E+00  1.47814048E+00
  1.49396244E+00  1.52119343E+00  1.54306454E+00  1.54928766E+00  1.58177430E+00
  1.60996601E+00  1.62912055E+00  1.65550776E+00  1.66703980E+00  1.68736578E+00
  1.71277631E+00  1.72711721E+00  1.76342063E+00  1.77369478E+00  1.81369628E+00
  1.84948572E+00  1.87740542E+00  1.90565745E+00  1.91854198E+00  1.93383012E+00
  1.96214520E+00  1.99581412E+00  2.02630585E+00  2.06510982E+00  2.14886322E+00
  2.25943119E+00  2.28605900E+00  2.32198032E+00  2.32456525E+00  2.35311961E+00
  2.42153928E+00  2.44813583E+00  2.49774940E+00  2.51111374E+00  2.55167993E+00
  2.55609342E+00  2.69160029E+00  2.70722757E+00  2.75494201E+00  2.79378694E+00
  2.85662987E+00  2.93214472E+00  3.10169726E+00  3.54998724E+00  3.64778791E+00
  3.69503271E+00  3.82253400E+00  3.83245372E+00  3.86644217E+00  4.00391277E+00
  4.05711237E+00  4.21312386E+00  4.47908592E+00
Alpha MO coefficients                      R   N=       24964
 -2.84741794E-06  6.30856584E-06  4.39406779E-06  3.83327809E-06  0.00000000E+00
 -3.78238540E-06 -6.54924149E-05 -2.00921719E-05  0.00000000E+00  1.40347876E-05
 -9.82221370E-06  8.57599904E-06 -8.34561768E-06  0.00000000E+00  0.00000000E+00
  2.91231875E-05  1.16976661E-04 -1.30446415E-05 -6.33830939E-11  0.00000000E+00
 -1.07645583E-03  5.33678867E-04  1.99275670E-09  0.00000000E+00  2.72945845E-05
  5.36816618E-05  7.48113539E-05  3.44080239E-11  0.00000000E+00  0.00000000E+00
 -2.84729398E-06  6.30856369E-06  4.39418397E-06 -3.83325182E-06  0.00000000E+00
 -3.78375327E-06 -6.54924376E-05  2.00928411E-05  0.00000000E+00  1.40348085E-05
 -9.82232396E-06  8.57589356E-06  8.34553956E-06  0.00000000E+00  0.00000000E+00
  2.83532353E-05  1.19053392E-04 -7.21215125E-05 -3.72493717E-11  0.00000000E+00
 -1.25772008E-03  1.83445389E-03 -2.50040642E-09  0.00000000E+00  7.36830857E-05
 -2.38507074E-05  6.52703592E-05  9.37668015E-11  0.00000000E+00  0.00000000E+00
 -1.01486858E-06 -3.13513824E-05 -7.99902108E-05  2.95386861E-05  0.00000000E+00
  2.52069423E-03 -1.03038764E-03  8.73881839E-04  0.00000000E+00  4.15244404E-05
  1.59021227E-05  1.92182177E-05  1.79813767E-05  0.00000000E+00  0.00000000E+00
  2.40065808E-05  2.08244362E-04  3.62698355E-05 -2.82289797E-06  0.00000000E+00
 -2.89967924E-03 -1.73666264E-03 -1.90042960E-03  0.00000000E+00 -8.28380069E-05
 -4.20502898E-05  4.79985654E-05  2.10626559E-05  0.00000000E+00  0.00000000E+00
 -6.84984791E-05  1.98964957E-04 -5.48183954E-06  2.79994633E-10  0.00000000E+00
 -1.63749537E-03  6.59600403E-03 -8.08482886E-09  0.00000000E+00 -1.07226548E-03
 -6.09507681E-05 -1.46035112E-04  1.04386555E-09  0.00000000E+00  0.00000000E+00
  9.92676148E-01  2.52312679E-02  1.24483646E-03 -9.43949256E-10  0.00000000E+00
  1.67328131E-02  2.29556893E-03 -1.72353496E-09  0.00000000E+00 -7.72790433E-03
 -8.39340171E-03 -8.38930059E-03 -6.33324440E-10  0.00000000E+00  0.00000000E+00
  2.40064836E-05  2.08244753E-04  3.62702785E-05  2.82286766E-06  0.00000000E+00
 -2.89968284E-03 -1.73667337E-03  1.90042841E-03  0.00000000E+00 -8.28396160E-05
 -4.20501770E-05  4.79982528E-05 -2.10629554E-05  0.00000000E+00  0.00000000E+00
 -1.01495830E-06 -3.13521414E-05 -7.99907314E-05 -2.95386018E-05  0.00000000E+00
  2.52070537E-03 -1.03038958E-03 -8.73885907E-04  0.00000000E+00  4.15251567E-05
  1.59021817E-05  1.92179776E-05 -1.79814730E-05  0.00000000E+00  0.00000000E+00
  3.79067165E-05  2.26786300E-04 -8.87240838E-05 -8.18230891E-04 -8.87234857E-05
 -8.18233076E-04  3.79067126E-05  2.26787092E-04  7.22264416E-01  1.86304864E-02
 -4.50076729E-04  9.70192329E-04  0.00000000E+00  1.14602551E-02 -1.16668938E-03
  1.54868819E-03  0.00000000E+00 -5.83280804E-03 -5.46304532E-03 -5.90931893E-03
 -1.90926243E-04  0.00000000E+00  0.00000000E+00  1.97714096E-06  1.93991949E-05
  3.76118951E-06 -2.33224460E-04  0.00000000E+00 -1.21174827E-04 -7.23814140E-05
  6.22414653E-03  0.00000000E+00  2.52384923E-06 -3.40124461E-05  5.07294098E-06
  7.19440176E-04  0.00000000E+00  0.00000000E+00 -6.81111845E-01 -1.75579213E-02
  4.21019213E-04  9.14637786E-04  0.00000000E+00 -1.09175541E-02  1.13714417E-03
  1.47605041E-03  0.00000000E+00  5.51162474E-03  5.15280015E-03  5.57447202E-03
 -1.73252607E-04  0.00000000E+00  0.00000000E+00 -5.90569384E-07  1.10867980E-06
 -9.91221920E-07  6.73330578E-05  0.00000000E+00  3.10502754E-05 -3.71564432E-05
 -4.65827030E-03  0.00000000E+00 -6.85508873E-06  1.20617433E-07 -1.14290330E-06
  9.25213213E-05  0.00000000E+00  0.00000000E+00  1.00473408E-05  9.00105615E-05
 -1.30359630E-05 -2.17640806E-05  0.00000000E+00 -2.19523802E-03 -1.36069799E-03
 -1.90188758E-03  0.00000000E+00  7.61246287E-06 -8.16812246E-05  2.11306413E-05
 -4.89879863E-05  0.00000000E+00  0.00000000E+00 -3.31886530E-06 -2.29618295E-05
  1.83099814E-05 -2.22367321E-05  0.00000000E+00  2.00926080E-05 -6.94657749E-04
  8.95605619E-04  0.00000000E+00 -7.99823766E-06  1.10511430E-05 -1.21092346E-06
  5.41675375E-07  0.00000000E+00  0.00000000E+00  1.56285185E-08 -1.42516109E-07
 -3.60599547E-07 -2.97643219E-06  0.00000000E+00  2.00522325E-06  9.21075157E-06
  1.06616089E-03  0.00000000E+00  4.02353762E-07 -4.58787281E-08  2.27324245E-07
  2.15563409E-05  0.00000000E+00  0.00000000E+00  3.25122871E-07  4.41357643E-07
  1.98961619E-07  6.99183292E-06  0.00000000E+00  1.28538418E-06 -8.34801206E-07
 -1.39409913E-04  0.00000000E+00 -8.74763691E-09  3.01227797E-07  9.25462117E-07
 -2.09408448E-05  0.00000000E+00  0.00000000E+00  4.56030408E-06  2.96450811E-05
 -1.75704878E-05 -2.24173703E-05  0.00000000E+00 -8.62726277E-05  6.54781721E-04
  8.97131573E-04  0.00000000E+00  6.41958567E-06 -1.03926138E-05  4.32787151E-06
  3.66429929E-07  0.00000000E+00  0.00000000E+00 -9.46136665E-06 -8.64430108E-05
  1.65618558E-05 -2.34890455E-05  0.00000000E+00  2.20717409E-03  1.31023976E-03
 -1.85339625E-03  0.00000000E+00 -5.34998497E-06  7.84990409E-05 -1.85559963E-05
 -4.79038773E-05  0.00000000E+00  0.00000000E+00  9.25211993E-05 -5.79142960E-04
  3.48643922E-05  1.44274679E-04 -3.37876550E-05 -1.49261193E-04 -8.75646547E-05
  5.52060619E-04  6.81148138E-01  1.77585676E-02 -4.82705698E-04  9.19707734E-04
  0.00000000E+00  8.92615527E-03 -4.70030585E-04  1.19434747E-03  0.00000000E+00